8
Lattice="-0.3496893227555595 -14.92464718499934 11.017504686217732 18.2641395546501 7.033001961571748 2.183069371324788 -12.690974730537896 3.6974472979108706 18.887736721097923" Properties=species:S:1:pos:R:3:masses:R:1:momenta:R:3:GMC_direction:R:3 ns_energy=229.1104059374343 volume=7245.786103962458 KEmax=-1.0 last_walked_iter_extra=7 iter=11 pbc="T T T"
H       35.56996556      13.97002696      79.63912402       1.00000000       0.00000000       0.00000000       0.00000000       0.19737954       0.01070063       0.42318055
H       32.77403368     -22.73235593      33.78361038       1.00000000       0.00000000       0.00000000       0.00000000       0.19154270      -0.13272954       0.11596695
H       -7.59529620      -2.45893106      30.63252935       1.00000000       0.00000000       0.00000000       0.00000000      -0.13463071       0.01252256       0.11247472
H       24.69960221      18.79992409      30.69085561       1.00000000       0.00000000       0.00000000       0.00000000       0.03837867       0.12938134       0.11766487
H      -24.91963226      23.13289487      36.97882112       1.00000000       0.00000000       0.00000000       0.00000000      -0.17923129       0.11366300       0.16143981
H      -14.63949964      34.90737974      52.40299358       1.00000000       0.00000000       0.00000000       0.00000000      -0.17893053       0.10413458       0.23531266
H      -12.87417790     -97.03959851     -20.08843900       1.00000000       0.00000000       0.00000000       0.00000000       0.07320118      -0.45360629      -0.29439051
H       10.62616407     -90.94197399      10.12247226       1.00000000       0.00000000       0.00000000       0.00000000       0.14974916      -0.39878385      -0.05026258
8
Lattice="8.2952466395776 17.598588338294867 4.932091456125498 -13.243722437131206 3.9558836417738736 2.145337011211054 4.793486515922767 9.896332322039388 18.321824017484104" Properties=species:S:1:pos:R:3:masses:R:1:momenta:R:3:GMC_direction:R:3 ns_energy=130.7937995518858 volume=4136.42958115735 KEmax=-1.0 last_walked_iter_extra=3 iter=11 pbc="T T T"
H        3.20824040      52.10528770     -13.19958696       1.00000000       0.00000000       0.00000000       0.00000000       0.15606973       0.27483080      -0.27751458
H       17.43551618      -6.17189561      -7.74090914       1.00000000       0.00000000       0.00000000       0.00000000       0.08437311      -0.14711697      -0.14060828
H      -33.65597364      74.72112762      13.68112505       1.00000000       0.00000000       0.00000000       0.00000000      -0.14993997       0.48217285       0.04108463
H        5.20113528      34.00360183      35.99574860       1.00000000       0.00000000       0.00000000       0.00000000       0.02639146       0.02927439       0.09178074
H       38.13551177      27.14991305      54.58049814       1.00000000       0.00000000       0.00000000       0.00000000       0.23319208      -0.04905789       0.27589938
H      -50.27966182      29.00839199     -15.22405016       1.00000000       0.00000000       0.00000000       0.00000000      -0.29123200       0.23486782      -0.10681135
H       34.96037601      57.14589818      27.80679177       1.00000000       0.00000000       0.00000000       0.00000000       0.22557471       0.14757328      -0.04319279
H       55.77399416      -0.35163942      36.02762243       1.00000000       0.00000000       0.00000000       0.00000000       0.28953829      -0.25165248       0.04407999
8
Lattice="6.855273322582269 13.964152464467517 3.476675534112157 -7.89626500553487 12.380258975746171 -15.819749844962487 -13.621750269447245 -4.487650277066468 10.392869061972482" Properties=species:S:1:pos:R:3:masses:R:1:momenta:R:3:GMC_direction:R:3 ns_energy=166.31790081245188 volume=5260.009924632529 KEmax=-1.0 last_walked_iter_clone=10 iter=11 pbc="T T T"
H       20.43945387      21.26159168      17.89334072       1.00000000       0.00000000       0.00000000       0.00000000       0.08156846       0.17317923       0.11785332
H      -63.31843586     -17.82614852     -28.22935179       1.00000000       0.00000000       0.00000000       0.00000000      -0.24328368      -0.26947057      -0.15805407
H        2.71645797      88.80258783     -29.51878532       1.00000000       0.00000000       0.00000000       0.00000000      -0.26230124       0.51394589      -0.18087414
H      -19.15472230      11.58622698      -1.16920082       1.00000000       0.00000000       0.00000000       0.00000000      -0.11153986       0.06343406      -0.01024345
H       -3.56714746      11.46350626       3.13515121       1.00000000       0.00000000       0.00000000       0.00000000       0.00129728       0.04944697       0.02761280
H      -27.15682393      17.07506275     -17.68211274       1.00000000       0.00000000       0.00000000       0.00000000      -0.15183355       0.07349141      -0.14177156
H      -72.98532480       8.75738429     -33.42811031       1.00000000       0.00000000       0.00000000       0.00000000      -0.38190340      -0.01500758      -0.29053624
H      -73.64521943     -26.08895071     -20.57128223       1.00000000       0.00000000       0.00000000       0.00000000      -0.21507012      -0.23828766      -0.15865159
8
Lattice="0.9599746126754498 0.5559386093145522 -20.172510628798555 -21.21395807973778 -5.729612211831807 -6.649847170876539 -14.664208888607977 11.847416477630976 -1.570615817404244" Properties=species:S:1:pos:R:3:masses:R:1:momenta:R:3:GMC_direction:R:3 ns_energy=217.67961763675768 volume=6884.826024539991 KEmax=-1.0 last_walked_iter_clone=8 last_walked_iter_extra=9 iter=11 pbc="T T T"
H       31.96203779      -6.03882589      17.27015824       1.00000000       0.00000000       0.00000000       0.00000000       0.15229723      -0.07084985       0.13984083
H      -27.56052875     -12.20071057     -73.64300185       1.00000000       0.00000000       0.00000000       0.00000000      -0.05574382      -0.06655265      -0.41951319
H       -1.31071628       4.07994767     -18.82154926       1.00000000       0.00000000       0.00000000       0.00000000       0.14415000      -0.01375665       0.00143879
H      -52.43236431     -50.67406156      15.45895459       1.00000000       0.00000000       0.00000000       0.00000000      -0.36564286      -0.38741671      -0.03944103
H      -45.37632748     -23.82631508     -59.72405946       1.00000000       0.00000000       0.00000000       0.00000000      -0.21932397      -0.13246380      -0.33758460
H      -54.84994115      36.13505701     -80.49713670       1.00000000       0.00000000       0.00000000       0.00000000      -0.09782194       0.27289860      -0.18538598
H       46.43894890     -27.84121144      34.30065932       1.00000000       0.00000000       0.00000000       0.00000000       0.23486464      -0.22530752       0.05785819
H      -23.76072603     -18.59239638      18.69390421       1.00000000       0.00000000       0.00000000       0.00000000      -0.07876507      -0.19953590       0.09526368
8
Lattice="15.667592020083626 0.3971606820788835 -1.6759646221955034 -0.14443908245463316 24.000862542910948 -3.4608765723278268 -1.0017513743602 -1.4515406636712889 16.93199390209986" Properties=species:S:1:pos:R:3:masses:R:1:momenta:R:3:GMC_direction:R:3 ns_energy=197.55777922373227 volume=6250.028613921828 KEmax=-1.0 iter=11 pbc="T T T"
H       10.11918732       6.00164233      -0.02768965       1.00000000       0.00000000       0.00000000       0.00000000       0.00000000       0.00000000       0.00000000
H       14.36108546      20.07621389      -3.49681996       1.00000000       0.00000000       0.00000000       0.00000000       0.00000000       0.00000000       0.00000000
H        5.72316191       0.72053177       9.52531898       1.00000000       0.00000000       0.00000000       0.00000000       0.00000000       0.00000000       0.00000000
H        9.90326307      14.63324619      10.07934992       1.00000000       0.00000000       0.00000000       0.00000000       0.00000000       0.00000000       0.00000000
H        8.52520270      17.58010070      13.00381051       1.00000000       0.00000000       0.00000000       0.00000000       0.00000000       0.00000000       0.00000000
H        0.45690921      19.41871470      -1.05499800       1.00000000       0.00000000       0.00000000       0.00000000       0.00000000       0.00000000       0.00000000
H        5.40061941       7.19460410       9.77044118       1.00000000       0.00000000       0.00000000       0.00000000       0.00000000       0.00000000       0.00000000
H       11.70001708      21.14506996      -1.20434214       1.00000000       0.00000000       0.00000000       0.00000000       0.00000000       0.00000000       0.00000000
8
Lattice="1.6699957916824355 -6.741993259989299 21.00102050133569 4.683360879796971 17.908583679143796 7.723775714700397 -15.796962151777487 2.289783607868415 -2.0089914839000946" Properties=species:S:1:pos:R:3:masses:R:1:momenta:R:3:GMC_direction:R:3 ns_energy=216.14195414156183 volume=6835.979275579008 KEmax=-1.0 last_walked_iter_clone=1 iter=11 pbc="T T T"
H       62.20079850     -24.49956804      25.45144845       1.00000000       0.00000000       0.00000000       0.00000000       0.49392485       0.04522699      -0.23250113
H        9.66062137      51.82727486      31.57861571       1.00000000       0.00000000       0.00000000       0.00000000      -0.03211196       0.30237614      -0.10127107
H      -44.63206950       6.33795819     -89.26770084       1.00000000       0.00000000       0.00000000       0.00000000      -0.29438384      -0.23690853      -0.28139908
H        6.45662705     -27.19835620      59.79670706       1.00000000       0.00000000       0.00000000       0.00000000       0.27246533      -0.08397351       0.18930231
H       19.33845327      12.74655620       9.41633357       1.00000000       0.00000000       0.00000000       0.00000000       0.16101506       0.07659107      -0.16958901
H       -1.40195522     -36.39646405      31.10741527       1.00000000       0.00000000       0.00000000       0.00000000       0.16817369      -0.24153205       0.21033258
H      -29.20577147      -8.39135850       0.37426153       1.00000000       0.00000000       0.00000000       0.00000000      -0.10202608      -0.14545959       0.04824197
H      -13.48489623     -15.28754959     -21.72548121       1.00000000       0.00000000       0.00000000       0.00000000       0.01711541      -0.17613087      -0.03870303
8
Lattice="14.277129962927393 -1.062018303769438 3.7638376963520868 -0.34216903758927836 16.709831012589582 -5.506217415442581 0.13203482781352446 -0.4185774251314413 23.28873636327421" Properties=species:S:1:pos:R:3:masses:R:1:momenta:R:3:GMC_direction:R:3 ns_energy=174.15018029296235 volume=5507.595834694507 KEmax=-1.0 iter=11 pbc="T T T"
H        8.54108604      13.80086359       2.94871133       1.00000000       0.00000000       0.00000000       0.00000000       0.00000000       0.00000000       0.00000000
H        0.74112423       0.58660313      22.81797787       1.00000000       0.00000000       0.00000000       0.00000000       0.00000000       0.00000000       0.00000000
H        6.61488760      15.88084084       9.04694945       1.00000000       0.00000000       0.00000000       0.00000000       0.00000000       0.00000000       0.00000000
H        7.72455158      11.87496358      -0.54363127       1.00000000       0.00000000       0.00000000       0.00000000       0.00000000       0.00000000       0.00000000
H       10.97599380      11.94294177      21.39454427       1.00000000       0.00000000       0.00000000       0.00000000       0.00000000       0.00000000       0.00000000
H        6.57678970      12.97356931      10.43115444       1.00000000       0.00000000       0.00000000       0.00000000       0.00000000       0.00000000       0.00000000
H        3.33849472       7.55377681       9.33638852       1.00000000       0.00000000       0.00000000       0.00000000       0.00000000       0.00000000       0.00000000
H        2.51935161       3.78179421       5.09865455       1.00000000       0.00000000       0.00000000       0.00000000       0.00000000       0.00000000       0.00000000
8
Lattice="-14.824088638814224 -7.94063578238316 13.757543721727902 10.035550466367656 -17.250309140816654 0.7359088289941867 -0.19730722401930434 4.5677192392330195 18.30553237313951" Properties=species:S:1:pos:R:3:masses:R:1:momenta:R:3:GMC_direction:R:3 ns_energy=214.21222850369688 volume=6774.633671554164 KEmax=-1.0 last_walked_iter_clone=11 iter=11 pbc="T T T"
H       -7.08150840     -54.76003128      16.44497826       1.00000000       0.00000000       0.00000000       0.00000000       0.02583541      -0.31366770      -0.06073988
H      -19.80991307      10.06926588      41.47876893       1.00000000       0.00000000       0.00000000       0.00000000      -0.10772520       0.11815048       0.12755340
H       16.10110823     -37.59850138     -44.38788808       1.00000000       0.00000000       0.00000000       0.00000000       0.07174932      -0.21408216      -0.36599569
H      -20.37768715     -23.70884950      65.62541694       1.00000000       0.00000000       0.00000000       0.00000000      -0.11919945      -0.07524502       0.37968377
H       15.45121839      -4.74887242      54.92089727       1.00000000       0.00000000       0.00000000       0.00000000       0.10713802       0.11418328       0.22371735
H        1.06136382      54.49389649      -9.30206795       1.00000000       0.00000000       0.00000000       0.00000000       0.01052483       0.48303992      -0.23999343
H       18.48579468       1.74487070      14.97560078       1.00000000       0.00000000       0.00000000       0.00000000       0.16928303       0.03216118      -0.07529759
H      -29.20015958      -2.32604080      70.69219452       1.00000000       0.00000000       0.00000000       0.00000000      -0.11535208       0.02080333       0.30291727
8
Lattice="-0.9294015351812762 -10.493652101824132 16.521828959031378 19.975339407626205 5.789676140396918 -6.200441416161492 13.115798299369684 21.906520783915948 -4.149895657117876" Properties=species:S:1:pos:R:3:masses:R:1:momenta:R:3:GMC_direction:R:3 ns_energy=185.1281291159165 volume=5854.780245372399 KEmax=-1.0 last_walked_iter_extra=10 iter=11 pbc="T T T"
H       47.20570022      44.99706506       8.93046742       1.00000000       0.00000000       0.00000000       0.00000000       0.22127200       0.19492034       0.06060667
H       30.12017495     -28.87172047     -36.67089738       1.00000000       0.00000000       0.00000000       0.00000000       0.09701920      -0.19892766      -0.21488763
H       24.87095628      16.58342474       1.33371769       1.00000000       0.00000000       0.00000000       0.00000000       0.12151372       0.08236717      -0.00067495
H       40.58989797      28.05049692      41.77366116       1.00000000       0.00000000       0.00000000       0.00000000       0.16013739       0.11262142       0.20315194
H       -8.13472452      70.77394497      42.59252476       1.00000000       0.00000000       0.00000000       0.00000000      -0.21261083       0.35096586       0.24653550
H       31.65621407     -62.54843420      82.97408223       1.00000000       0.00000000       0.00000000       0.00000000       0.15755967      -0.35704275       0.45574273
H       12.44421201     -23.76212401      19.52823902       1.00000000       0.00000000       0.00000000       0.00000000      -0.02807460      -0.21659512       0.06587986
H       17.22118130      29.60128186      46.23016233       1.00000000       0.00000000       0.00000000       0.00000000       0.02728951       0.12735838       0.23428289
8
Lattice="10.397330879231347 6.457866812761135 16.23735953582277 -18.36492924612577 11.550877242206202 -8.7106350035595 -7.679446870975751 -7.029502144221766 13.359709211388797" Properties=species:S:1:pos:R:3:masses:R:1:momenta:R:3:GMC_direction:R:3 ns_energy=206.18040525331304 volume=6520.765973586246 KEmax=-1.0 last_walked_iter_extra=11 last_walked_iter_clone=5 iter=11 pbc="T T T"
H      -47.00303874     -28.49395579      49.81076253       1.00000000       0.00000000       0.00000000       0.00000000      -0.23991136      -0.26651096       0.22210701
H      -35.28235637      -8.99848151      79.59892194       1.00000000       0.00000000       0.00000000       0.00000000      -0.18585083      -0.07627623       0.39102439
H      -98.55888339      27.87650873      35.59788296       1.00000000       0.00000000       0.00000000       0.00000000      -0.50368175       0.18402013       0.17038117
H       12.35785559      15.94543195     -44.91312026       1.00000000       0.00000000       0.00000000       0.00000000       0.06765744       0.07943653      -0.29330750
H       -5.28120687      33.73222966      49.44536709       1.00000000       0.00000000       0.00000000       0.00000000       0.00450721       0.23316322       0.19323089
H        7.04856689      11.92404109      17.62776534       1.00000000       0.00000000       0.00000000       0.00000000       0.05188521       0.02748890       0.05741130
H      -37.91667976     -11.91457074      -5.26056509       1.00000000       0.00000000       0.00000000       0.00000000      -0.16131552      -0.09802567      -0.06673263
H      -25.32900952       0.37506406     -30.94393922       1.00000000       0.00000000       0.00000000       0.00000000      -0.14492554      -0.00886557      -0.23597557
8
Lattice="-14.650476944359527 -4.120779872232024 10.518838533195096 -8.954367805419956 5.4010643671143255 -16.248930650976394 -2.4070082820206604 -16.890963465215012 -12.190394579327869" Properties=species:S:1:pos:R:3:masses:R:1:momenta:R:3:GMC_direction:R:3 ns_energy=221.4007198815753 volume=7001.920299865101 KEmax=-1.0 last_walked_iter_clone=9 iter=11 pbc="T T T"
H       -1.61970547      -9.92814563      11.41221248       1.00000000       0.00000000       0.00000000       0.00000000       0.11214793       0.00040824       0.12151954
H      -37.47647904      -7.19757768      19.57177867       1.00000000       0.00000000       0.00000000       0.00000000      -0.15958251       0.03048937       0.12936720
H       28.67337224      31.84868090     -25.84618168       1.00000000       0.00000000       0.00000000       0.00000000       0.20788467       0.23295533      -0.12598691
H       10.53932607      49.61944289     -29.57386447       1.00000000       0.00000000       0.00000000       0.00000000       0.18674307       0.41878732      -0.13247004
H       -5.86102042     -35.94804007     -35.52522862       1.00000000       0.00000000       0.00000000       0.00000000       0.01490754      -0.19616370      -0.13891326
H      -32.26200699     -24.57841315     -42.39661204       1.00000000       0.00000000       0.00000000       0.00000000      -0.07480873      -0.06445264      -0.15693421
H      -25.97582857     -62.19628378     -29.94032515       1.00000000       0.00000000       0.00000000       0.00000000      -0.09354666      -0.35209010      -0.06287919
H      -51.09942153     -75.00119035     -53.08754223       1.00000000       0.00000000       0.00000000       0.00000000      -0.24395887      -0.48552555      -0.25310322
8
Lattice="19.120538929901883 -2.3230316189291313 -12.1492815689013 12.118516281691594 16.497632332953522 -7.797587919608431 -7.846588357810323 -4.553855958267351 22.70452491680367" Properties=species:S:1:pos:R:3:masses:R:1:momenta:R:3:GMC_direction:R:3 ns_energy=192.18085611854912 volume=6077.825936704836 KEmax=-1.0 last_walked_iter_extra=2 last_walked_iter_clone=3 iter=11 pbc="T T T"
H       86.19133016      49.72470176      55.79932075       1.00000000       0.00000000       0.00000000       0.00000000       0.39116461       0.12058076       0.38870824
H       19.15566590       9.05558205      -2.22259687       1.00000000       0.00000000       0.00000000       0.00000000       0.08670405       0.05451759      -0.02435055
H       34.96933792      32.97018215      18.61649083       1.00000000       0.00000000       0.00000000       0.00000000       0.14986004       0.10532229       0.07999222
H       32.40665247       0.54086015      11.16793336       1.00000000       0.00000000       0.00000000       0.00000000       0.09991393      -0.07331831       0.04675872
H      -11.41567236       9.04801755     -58.84605583       1.00000000       0.00000000       0.00000000       0.00000000      -0.18022829       0.15490241      -0.33326219
H       14.64873285     -24.56531032     -27.25839353       1.00000000       0.00000000       0.00000000       0.00000000      -0.00007233      -0.12983856      -0.12181663
H       38.24319836     -57.42197044     -50.86668397       1.00000000       0.00000000       0.00000000       0.00000000       0.17821191      -0.36288356      -0.40901984
H       26.84685992      51.32291829     -11.24970496       1.00000000       0.00000000       0.00000000       0.00000000       0.03880287       0.27663432      -0.06905047
